% Model:              phononic_alp0(thickness200,r85,isotrope,50eigenvalues-Size60).mph
% Version:            COMSOL 6.2.0.290
% Date:               Jul 1 2024, 13:54
% Dimension:          1
% Nodes:              1891
% Expressions:        50
% Description:        Global
% X component of wave number (1/m),Frequency,Frequency,Frequency,Frequency,Frequency,Frequency,Frequency,Frequency,Frequency,Frequency,Frequency,Frequency,Frequency,Frequency,Frequency,Frequency,Frequency,Frequency,Frequency,Frequency,Frequency,Frequency,Frequency,Frequency,Frequency,Frequency,Frequency,Frequency,Frequency,Frequency,Frequency,Frequency,Frequency,Frequency,Frequency,Frequency,Frequency,Frequency,Frequency,Frequency,Frequency,Frequency,Frequency,Frequency,Frequency,Frequency,Frequency,Frequency,Frequency,Frequency
0,0,0,3077.7270056897514,9.660881104352894E9,9.660887608337296E9,1.5023555643998156E10,1.7616203323701733E10,1.76162403836623E10,1.8878762388229885E10,1.8981605329069336E10,1.9580411506380527E10,1.958052366923836E10,2.1173400471225555E10,2.117353698529103E10,2.2278375654219254E10,2.388743121750902E10,2.3887462774640392E10,2.529205817239305E10,2.74270125586603E10,2.7427140747517483E10,2.7439256866735935E10,2.863663267220506E10,2.863675223515534E10,2.8750896625128323E10,2.937566139193493E10,2.940776564431849E10,3.0486716378312275E10,3.062545472872822E10,3.0888016069369637E10,3.088808642807867E10,3.4255573616947823E10,3.701574614384551E10,3.7016500206988144E10,3.730355370531121E10,3.7452918895474945E10,3.767183570713615E10,3.767185312085101E10,3.803736510770814E10,3.819757842053868E10,3.822086395610015E10,3.865896530085288E10,3.866061911529163E10,3.981454987259022E10,3.98147897901003E10,3.987518283362086E10,4.287482815372725E10,4.386122899130333E10,4.3862899528246864E10,4.46091497306937E10,4.460979428457463E10
261799.38779914944,4079758.0241158293,7.920395246483378E7,2.706919917818823E8,9.661503884387259E9,9.663331024951828E9,1.5016101657044888E10,1.761561116538828E10,1.7618737792585445E10,1.8869388510822792E10,1.8979881944691814E10,1.9580386827087402E10,1.9586366225435246E10,2.1174295390483883E10,2.1183038970965916E10,2.227832808023972E10,2.388723489733584E10,2.3887762411609615E10,2.5291578760083305E10,2.731723804789101E10,2.7427498562120495E10,2.7546530848625885E10,2.8605390335740364E10,2.8635727829038914E10,2.8785285113811058E10,2.9376704014903652E10,2.9410676821636993E10,3.048631415348474E10,3.0613991688130833E10,3.0888736159731102E10,3.0903135140063927E10,3.4254898686792305E10,3.69871658714794E10,3.7005723528588455E10,3.731330957483271E10,3.747561148879553E10,3.7667024062579735E10,3.767091974868144E10,3.799424350997325E10,3.820061599555464E10,3.820878564788429E10,3.8671181382712456E10,3.870490547359768E10,3.9782888340077156E10,3.981515965242786E10,3.9907481719048294E10,4.287302810529571E10,4.385496243269616E10,4.38594331388826E10,4.459983710363879E10,4.460953303450929E10
523598.7755982989,1.6298358163906673E7,1.5843118969340122E8,5.412884691758558E8,9.663362647788948E9,9.670643951845823E9,1.4993921060811092E10,1.7613781997980568E10,1.762616673705264E10,1.8841731315492054E10,1.897472478143157E10,1.958015107468531E10,1.960399676854166E10,2.1176777708502487E10,2.1211281968465324E10,2.2278181269149513E10,2.3886603168248127E10,2.3888706618159863E10,2.5290144111582253E10,2.7199448315563747E10,2.7428755354770706E10,2.7656554692950703E10,2.8549659723665413E10,2.8632849105166866E10,2.8850265263743675E10,2.937981734721179E10,2.9419478851997772E10,3.048511275089325E10,3.0585531209510227E10,3.089078918689875E10,3.0942459136011917E10,3.4252874035354416E10,3.691369006013428E10,3.697802567194119E10,3.733900189303156E10,3.753001109991826E10,3.7646788836269485E10,3.766802761048946E10,3.7896975029495995E10,3.8175902217545235E10,3.821000961560408E10,3.870218687298393E10,3.881385451815044E10,3.973319274702583E10,3.981665748820962E10,3.995878022168279E10,4.286758987422736E10,4.3834455888022224E10,4.3851108959090485E10,4.457751132722191E10,4.460967954696221E10
785398.1633974484,3.659423912077003E7,2.3770487838042292E8,8.116936260786928E8,9.666461103702301E9,9.68274244681497E9,1.4957536742925905E10,1.761074156160798E10,1.763817325834521E10,1.8797079332212086E10,1.8966172659850826E10,1.9579772644038605E10,1.9633171801042904E10,2.1180915462961098E10,2.1256906569121822E10,2.2277923049324036E10,2.3885559005919212E10,2.389027993240453E10,2.5287764950071056E10,2.7079895656026962E10,2.743082039879183E10,2.7762928907818493E10,2.849133478762173E10,2.8628101810827175E10,2.892397306442782E10,2.938495896301414E10,2.943437225511078E10,3.0483127654176476E10,3.054950061601641E10,3.089420471830013E10,3.0996599640360195E10,3.4249500108689445E10,3.681546136994192E10,3.693951721110826E10,3.7374013192413536E10,3.7586600114188805E10,3.7595467651335976E10,3.766278415038007E10,3.780542168046375E10,3.812907632793049E10,3.822654576157748E10,3.8746291096048035E10,3.895136274714266E10,3.968225633101441E10,3.981925234772883E10,4.001255501017654E10,4.285840125112081E10,4.3800729817607735E10,4.383796003530614E10,4.454954081421725E10,4.460993427205936E10
1047197.5511965977,6.4866307205925435E7,3.170479487478125E8,1.081811072119848E9,9.67080003299486E9,9.699493536685553E9,1.4907755161815767E10,1.760650238119413E10,1.765425754171722E10,1.8737281650313564E10,1.895428979072185E10,1.957927412295618E10,1.9673581894268127E10,2.118671085508087E10,2.1318056892821316E10,2.2277533450856823E10,2.3884116275203514E10,2.389248080859262E10,2.52844590084149E10,2.6958956331631996E10,2.7433649957185158E10,2.786494202547269E10,2.8434217450458164E10,2.862155769271814E10,2.9002557757419746E10,2.939206190032142E10,2.9455673469859524E10,3.0480383625442696E10,3.0511698597568893E10,3.089897562617554E10,3.1059763021642757E10,3.4244777764450592E10,3.670357519002888E10,3.6895042804589096E10,3.741324865374336E10,3.746377169211229E10,3.765444553026007E10,3.765967522676763E10,3.775963616824203E10,3.807453307499669E10,3.825130018974861E10,3.879803077541765E10,3.910005873137698E10,3.963218950869243E10,3.982309394808911E10,4.006694934836706E10,4.2845282339872925E10,4.375472047609074E10,4.3820652679351265E10,4.451869590442829E10,4.461029171225025E10
1308996.9389957471,1.0097611506338957E8,3.9648297528101546E8,1.3515435383782322E9,9.676380510713669E9,9.720714208739944E9,1.4845586055628267E10,1.7601081958690887E10,1.7673827338773216E10,1.8664438067386986E10,1.893916506468558E10,1.9578686205181564E10,1.9724806038230675E10,2.1194167003221436E10,2.1392623879214165E10,2.2276985168054935E10,2.3882293592733395E10,2.38953074597967E10,2.528025082397795E10,2.6836923798734825E10,2.743718417254994E10,2.7961870412977394E10,2.8379227425006893E10,2.8613310092551945E10,2.908503220951245E10,2.940103961395665E10,2.948378457163617E10,3.047499981846258E10,3.047691472558299E10,3.0905095669399086E10,3.1129078718159725E10,3.423870843560492E10,3.658318790148075E10,3.684741560528769E10,3.730284462035004E10,3.745354487297132E10,3.764174133282148E10,3.7716374392670044E10,3.774237720411506E10,3.801704000473059E10,3.828517774207037E10,3.88539215188886E10,3.925264750281728E10,3.9583856109632835E10,3.982839690886036E10,4.012145892039002E10,4.282799711817863E10,4.369748750503018E10,4.380009651001288E10,4.448610584390731E10,4.461075059202731E10
1570796.3267948967,1.447507515642126E8,4.760320562204561E8,1.6207925805926132E9,9.683203894053741E9,9.746174369828085E9,1.477215692801472E10,1.759450284958932E10,1.769627034994881E10,1.858064105333903E10,1.8920911097120827E10,1.957804735520653E10,1.97863244684362E10,2.1203288506352066E10,2.147850299060124E10,2.2276244184435936E10,2.388011406810054E10,2.3898757735953224E10,2.5275171458004383E10,2.671404343107178E10,2.7441348433241264E10,2.8052989327780525E10,2.8326643530828026E10,2.8603468147512962E10,2.9171032595994823E10,2.9411791777419483E10,2.9519145380976147E10,3.044088110158505E10,3.0472756749947254E10,3.0912563072327713E10,3.120307743123197E10,3.423129435549661E10,3.645683253179188E10,3.679821940292967E10,3.7125702928431404E10,3.749286240352444E10,3.762267847784232E10,3.7735112469149315E10,3.7762668601574005E10,3.796065198818007E10,3.8328279745463844E10,3.891191651186547E10,3.940578349568822E10,3.953794792195094E10,3.98354441721195E10,4.0175859524094604E10,4.280627091780845E10,4.363017912486608E10,4.3777293612602196E10,4.445236115812935E10,4.4611309966546E10
1832595.7145940461,1.9598630042348245E8,5.557166913410126E8,1.8894582790917878E9,9.691271803967966E9,9.77560041055174E9,1.4688636329528427E10,1.7586792697207954E10,1.7721013621925865E10,1.8487811693422592E10,1.889966306184209E10,1.95774031623982E10,1.985753590120002E10,2.121408185538786E10,2.1573758089052094E10,2.2275270539105885E10,2.387760478052416E10,2.3902829206698875E10,2.526925814581771E10,2.659052338386268E10,2.74460551191914E10,2.813762543361043E10,2.8276540336641045E10,2.859215094297116E10,2.926038293656075E10,2.9424210177496124E10,2.9562166876612736E10,3.041017349918206E10,3.046795796118811E10,3.0921384880067318E10,3.1280924889397785E10,3.4222538835715755E10,3.632588760308277E10,3.674839058790597E10,3.694020852322961E10,3.752970440855821E10,3.7594556527760124E10,3.773172749801294E10,3.7797983689854675E10,3.790929164637012E10,3.837947358011216E10,3.897081135620761E10,3.949516536540637E10,3.955772483133515E10,3.984458935978745E10,4.023002522593462E10,4.277981403752902E10,4.355395863783867E10,4.37532531236358E10,4.4417830618785835E10,4.461196819728822E10
2094395.1023931955,2.5445170692117068E8,6.355576575456004E8,2.157438934765518E9,9.700586102299475E9,9.808679222465696E9,1.4596173914108294E10,1.7577984254765617E10,1.774756294174708E10,1.8387623569006313E10,1.887557734997698E10,1.9576805590021633E10,1.9937777997801266E10,2.1226555840327896E10,2.1676697339103973E10,2.2274019209501842E10,2.387479617637811E10,2.3907519298629967E10,2.5262553885086983E10,2.6466541640609024E10,2.745120570738599E10,2.8215225651840393E10,2.822890982007201E10,2.857948219366858E10,2.935297477308948E10,2.9438184102592663E10,2.9613150459472683E10,3.038340372914382E10,3.046256743355001E10,3.0931582180515617E10,3.136208877900029E10,3.4212446588101925E10,3.619117926590705E10,3.6698521689929695E10,3.6749427096121925E10,3.755471675867059E10,3.7562820690425575E10,3.7730185704683395E10,3.782332380778566E10,3.786636900755969E10,3.843653561805925E10,3.902987530360691E10,3.9456259305580345E10,3.9707445363373375E10,3.985625577755869E10,4.028387858419442E10,4.274835037790097E10,4.346995136870613E10,4.3728925121888E10,4.4382759917882195E10,4.4612723927139854E10
2356194.490192345,3.1989288657794094E8,7.155748817074566E8,2.424630760485562E9,9.71114886447715E9,9.845062514981041E9,1.449585936754722E10,1.7568115390251858E10,1.777552181908999E10,1.8281487608829597E10,1.8848830089395893E10,1.95763121621309E10,2.0026349349249447E10,2.124072193520926E10,2.17858880754969E10,2.2272441082708775E10,2.387172142648054E10,2.391282548919501E10,2.5255106970271255E10,2.634225150725628E10,2.745669320412712E10,2.8183704608817066E10,2.8285427152334644E10,2.8565585833399338E10,2.9448724375085754E10,2.9453605847895603E10,2.9672205054611538E10,3.036093457530641E10,3.0456641640588966E10,3.094319645735488E10,3.1446189208150578E10,3.4201024080169697E10,3.605324474357719E10,3.65548458947333E10,3.664901270651446E10,3.750205374944875E10,3.7591075036486465E10,3.772967792312779E10,3.783347308336465E10,3.784042987117841E10,3.8496736662425415E10,3.908864790941093E10,3.942203039021976E10,3.985426445363091E10,3.987092896335651E10,4.033737224027703E10,4.271164815264006E10,4.3379216006060936E10,4.370515068902039E10,4.434730161114546E10,4.461357493796412E10
2617993.8779914943,3.920369155496662E8,7.957873101658561E8,2.690927567516079E9,9.722962347661472E9,9.88437128732414E9,1.4388698317779997E10,1.7557229066633373E10,1.780459391021188E10,1.817057062337617E10,1.881961555576546E10,1.9575985120838818E10,2.0122531010694683E10,2.1256594634711838E10,2.1900137900091675E10,2.227048398613758E10,2.3868415771859646E10,2.391874557642033E10,2.5246970481765415E10,2.6217786094064766E10,2.746240485358031E10,2.814085636149952E10,2.83481094308367E10,2.8550582670896347E10,2.9470368626279938E10,2.9547561418001827E10,2.973917881239771E10,3.034303381851767E10,3.0450247296732033E10,3.0956297611556908E10,3.1532926216763657E10,3.4188279910986256E10,3.5912458154374916E10,3.635733146354013E10,3.660014862797674E10,3.743775112444309E10,3.7613401766300705E10,3.772983330127321E10,3.780974693471647E10,3.785110381156133E10,3.855740931821036E10,3.914682796521557E10,3.939330301791505E10,3.988913899300593E10,3.99976739508596E10,4.0390480462874466E10,4.2669548077864395E10,4.328273674246179E10,4.3682627548593864E10,4.431151770089797E10,4.4614518453933525E10
2879793.2657906436,4.705961579380855E8,8.76212774205541E8,2.9562204466074595E9,9.736028954178162E9,9.926200328925117E9,1.4275601494588793E10,1.7545373289947292E10,1.783457437922006E10,1.805582804329833E10,1.878814449977563E10,1.9575890584070816E10,2.022560581467561E10,2.1274191719447296E10,2.2018461454960133E10,2.226809374813621E10,2.386491588370973E10,2.3925278055687725E10,2.523820173849444E10,2.609326202632293E10,2.7468225051550766E10,2.8100284797867798E10,2.8403411566596703E10,2.853458809385585E10,2.9488380496601753E10,2.9649409980222244E10,2.98136185584664E10,3.032990735599397E10,3.044347049547872E10,3.0970994561016914E10,3.162204104177668E10,3.4174225192692112E10,3.576909581623352E10,3.6157470410121925E10,3.655214103922952E10,3.736425146626123E10,3.762881604689372E10,3.7730464013297066E10,3.7792979669568535E10,3.785687316427747E10,3.861624921143014E10,3.9204211256782E10,3.93708775619327E10,3.991142894493204E10,4.013724602600969E10,4.044319458468747E10,4.262198392352289E10,4.318143144639415E10,4.366189153991264E10,4.4275366242370125E10,4.4615550939438095E10
3141592.6535897935,5.552722073839953E8,9.568678507665046E8,3.220397443664486E9,9.750351190035093E9,9.970122646258333E9,1.4157383134883068E10,1.7532601018568542E10,1.786533542677006E10,1.7938039531972633E10,1.8754642407292744E10,1.9576097731334305E10,2.033487422718211E10,2.129353443215473E10,2.2140044153289963E10,2.2265215260030502E10,2.386125926015217E10,2.3932422651718098E10,2.522886172272336E10,2.596878254806322E10,2.747403837207011E10,2.8061902721966835E10,2.8451708490233555E10,2.8517710692345585E10,2.950755382914138E10,2.9754197072803776E10,2.9894755136106003E10,3.0321715724890236E10,3.043643760526725E10,3.0987449840104885E10,3.1713292573371624E10,3.415887392121484E10,3.562337272693543E10,3.595571423777456E10,3.650515156103117E10,3.728391001725959E10,3.763645815488762E10,3.773146861565981E10,3.7780988551892296E10,3.7858916478057724E10,3.867139943005424E10,3.9260654338361946E10,3.935546501659843E10,3.9938307927519066E10,4.027257469641259E10,4.049552023808457E10,4.2568991575198265E10,4.3076172401731895E10,4.364331401094608E10,4.423867380559178E10,4.461666805543306E10
3403392.041388943,6.45759546190961E8,1.0377677175403558E9,3.48334323011313E9,9.765931618273811E9,1.0015693742398674E10,1.4034765194429016E10,1.7518970028090588E10,1.781784196062474E10,1.7896809994958633E10,1.8719347701050125E10,1.957667804151328E10,2.044966616353955E10,2.1314647552365757E10,2.2261793512930206E10,2.2264208304733807E10,2.38574836786909E10,2.3940181080849277E10,2.521901448577903E10,2.584444015241361E10,2.747973259505541E10,2.8025619131697483E10,2.8493554380186462E10,2.85000516219769E10,2.9527812334133327E10,2.9861844711182083E10,2.998148611600138E10,3.0318582261725716E10,3.042936607415134E10,3.1005900327170307E10,3.1806440199822117E10,3.414224331861393E10,3.547546430023605E10,3.575245189426967E10,3.645930567865475E10,3.719847101173643E10,3.7635654339052025E10,3.7732790609488174E10,3.777216415145746E10,3.785810716149985E10,3.872144356126068E10,3.931605253270848E10,3.9347613726926056E10,3.9970191546368324E10,4.040322870675365E10,4.054747554496418E10,4.251070554524031E10,4.296781858212784E10,4.362711366398038E10,4.420109138540989E10,4.461786392224435E10
3665191.4291880922,7.417488522286983E8,1.1189260014866867E9,3.744938768391989E9,9.782772806848999E9,1.0062455704516697E10,1.3908384771422922E10,1.7504542727728165E10,1.769575766814573E10,1.792897622538492E10,1.8682509884832245E10,1.9577704602338734E10,2.056934876309347E10,2.1337559361750835E10,2.2257774585184483E10,2.23903835937131E10,2.3853626719101654E10,2.394855816333509E10,2.52087265432666E10,2.572031885517878E10,2.7485201609371468E10,2.7991341320129105E10,2.848170451995058E10,2.8529610912421978E10,2.9549089917421753E10,2.9972270494518974E10,3.007227521717759E10,3.032059686778875E10,3.042270493295498E10,3.102668714317591E10,3.19012280575486E10,3.4124354129022675E10,3.5325520090724236E10,3.5548053554308395E10,3.6414701248454216E10,3.710910856031665E10,3.7625974793025154E10,3.773439887699022E10,3.776544280259645E10,3.785508600188742E10,3.876538115265824E10,3.9347643808914085E10,3.937032593949727E10,4.000733895689536E10,4.052870207227972E10,4.059908987155108E10,4.244734502663641E10,4.285726158814238E10,4.361337926651806E10,4.416203024763035E10,4.459310737779628E10
3926990.8169872416,8.429299096482801E8,1.2003546197066433E9,4.005060973331464E9,9.800877270670921E9,1.0109941081771194E10,1.3778802959352034E10,1.748938592577981E10,1.7572217688525127E10,1.7961844022218086E10,1.8644387624568787E10,1.9579251506262836E10,2.069333052695995E10,2.136230149593153E10,2.22531065594193E10,2.251808203225728E10,2.384972536726788E10,2.3957563481738956E10,2.5198066268241074E10,2.559649621833975E10,2.749034806032328E10,2.795897639266877E10,2.846275580568496E10,2.8560578612681023E10,2.9571330520909073E10,3.008538722435883E10,3.0164704742042862E10,3.032781741959824E10,3.0417606392453648E10,3.1050298693617016E10,3.1997366833173862E10,3.410523085048379E10,3.517367295271835E10,3.534290431336972E10,3.6371413935848274E10,3.701660037155505E10,3.760726939628476E10,3.77362777301679E10,3.7760141440139244E10,3.7850326426302826E10,3.880260364391977E10,3.9355606570444664E10,3.942341006087884E10,4.004980087435971E10,4.064835002282246E10,4.065040294502072E10,4.237919374699961E10,4.274549153787597E10,4.3602098203670074E10,4.4120578574186554E10,4.454249846762438E10
4188790.204786391,9.48994102443488E8,1.2820636114239233E9,4.2635823706085544E9,9.820247407364498E9,1.015767655968507E10,1.3646513999310953E10,1.7447580403914417E10,1.7473570543377964E10,1.799544420101589E10,1.860524675582675E10,1.9581393342290108E10,2.082106242981054E10,2.138890868084921E10,2.2247740351404003E10,2.264687659907063E10,2.384581570647005E10,2.3967213916553562E10,2.5187103290596107E10,2.5473045227149525E10,2.7495085616469727E10,2.7928432412974384E10,2.8443285227948013E10,2.8587143164913635E10,2.9594487711492622E10,3.020110266156509E10,3.0253430943489147E10,3.0340269918310658E10,3.041796269027837E10,3.1077430863737206E10,3.2094508705844257E10,3.4084901886207607E10,3.502004551559281E10,3.5137438588118065E10,3.6329500820989845E10,3.692147266556078E10,3.757966842236959E10,3.7738421551086296E10,3.775581833611026E10,3.784418401887335E10,3.8832862776256836E10,3.937128063525724E10,3.947524911391844E10,4.009739306215621E10,4.070146421181892E10,4.076129496688237E10,4.230657836562701E10,4.263369515024667E10,4.3593185828690285E10,4.4075418213341774E10,4.448785448272197E10
4450589.59258554,1.0596364890904691E9,1.3640609597175465E9,4.520370753959592E9,9.840885426213486E9,1.0205186455855E10,1.3511954074271236E10,1.732214633968735E10,1.7457171277367172E10,1.8029820174388428E10,1.85653582042246E10,1.95842047881641E10,2.095203665624662E10,2.141741835287923E10,2.2241630436416935E10,2.2776382270592793E10,2.3841932699125854E10,2.3977537638092663E10,2.5175907910143936E10,2.5350036130660236E10,2.7499340748703968E10,2.789961929181149E10,2.8423366552765533E10,2.8609940511585537E10,2.9618524133132587E10,3.0319319220175877E10,3.0321279750528755E10,3.0357947932855106E10,3.0439266615093456E10,3.1109064658489525E10,3.2192208617882576E10,3.406339960093964E10,3.4864755080790054E10,3.493218507250553E10,3.6289002876888084E10,3.682409555609053E10,3.754354728402996E10,3.774083177521635E10,3.775218155440812E10,3.783693161358746E10,3.885622138985073E10,3.939420509238522E10,3.952579086979958E10,4.0149702877387955E10,4.075233235662388E10,4.0866280013675316E10,4.2229849215987785E10,4.252340682332817E10,4.3586511787916176E10,4.402480581889035E10,4.443152269530098E10
4712388.98038469,1.174557471514113E9,1.446352401419501E9,4.775288843414524E9,9.862793269644917E9,1.02519960749789E10,1.3375509405127277E10,1.7196169833234863E10,1.7440266214581493E10,1.806502185779453E10,1.8524995804539948E10,1.9587760302425304E10,2.108578353524001E10,2.14478701619267E10,2.223473546214823E10,2.2906237660564964E10,2.383811005912717E10,2.3988580607997616E10,2.516455051887995E10,2.5227538384755573E10,2.750305394392782E10,2.7872449484636063E10,2.8403068315681316E10,2.86295388293773E10,2.9643410897661545E10,3.034521017505393E10,3.0380811742069824E10,3.0439933425365543E10,3.0502584423221596E10,3.1146546990822273E10,3.2289859519113625E10,3.404076027111636E10,3.470791765503632E10,3.47278362107966E10,3.624994673359859E10,3.672474182753438E10,3.749946596738237E10,3.7743515066554665E10,3.774903292260285E10,3.782878348845329E10,3.88729859188998E10,3.942373868070998E10,3.957498226670522E10,4.020612522737973E10,4.080307491940213E10,4.096143850901728E10,4.2149365621553375E10,4.241674337584603E10,4.358192123612784E10,4.396674435505809E10,4.437628210517115E10
4974188.368183839,1.293464082461061E9,1.5289412234157567E9,5.028193947494867E9,9.885972526481997E9,1.029763496841426E10,1.3237523508822796E10,1.706986822544308E10,1.7422936400953907E10,1.8101101383213814E10,1.8484434005958103E10,1.9592133911413406E10,2.1221867097438984E10,2.1480305355955414E10,2.2227018740387257E10,2.303608461743294E10,2.3834380212848495E10,2.400041759418882E10,2.5105622636673103E10,2.515310126329744E10,2.7506180313474735E10,2.7846838538971355E10,2.8382454586015564E10,2.864643294412776E10,2.9669126964474438E10,3.0344989975222496E10,3.0408787203225956E10,3.056283493513926E10,3.0585852717541283E10,3.1191622878984985E10,3.2386577148926563E10,3.4017023921124035E10,3.45253676056248E10,3.4549651655432495E10,3.6212345974169716E10,3.662362282387689E10,3.7448099472515305E10,3.774622046556546E10,3.774649587525884E10,3.781991190604804E10,3.8883629648403885E10,3.945912850919305E10,3.9622765247781944E10,4.026591499121613E10,4.0853767955977295E10,4.10439498164789E10,4.206548655341241E10,4.2316751749786674E10,4.3579250421225006E10,4.389945164784379E10,4.4324819135115776E10
5235987.7559829885,1.4160709223858418E9,1.6118280433529458E9,5.278937633100188E9,9.910424336036379E9,1.0341640144844307E10,1.3098303598029898E10,1.694342911325421E10,1.7405265369717873E10,1.8138110211460907E10,1.84439454551299E10,1.9597399082412464E10,2.135987948674169E10,2.1514766044051487E10,2.2218448612724033E10,2.316554123404824E10,2.3830774345650852E10,2.4013171709168423E10,2.4984364001062553E10,2.514162893068064E10,2.750868959824343E10,2.782270551960552E10,2.8361585709246426E10,2.8661046585599834E10,2.9695658539950645E10,3.0337720369518993E10,3.044176352594313E10,3.066948083697099E10,3.068790484245268E10,3.124630590156274E10,3.2480983195534782E10,3.3992234041672894E10,3.43262592709667E10,3.439008178561401E10,3.617620210493877E10,3.652091065367066E10,3.739017396760928E10,3.774368172253027E10,3.7749751712481285E10,3.781045843405168E10,3.8888719409458824E10,3.949957352062648E10,3.966907235481368E10,4.032824020977402E10,4.0904495689669914E10,4.110961707190532E10,4.197856644437471E10,4.222783366760427E10,4.357833715106263E10,4.3821986403697845E10,4.427904756404279E10
5497787.143782138,1.5421007806878493E9,1.6950105724805791E9,5.527365407701659E9,9.936149281921225E9,1.038355927444086E10,1.2958126167588648E10,1.681701609442393E10,1.738733863342852E10,1.817609728430662E10,1.8403798455562065E10,1.960362867087753E10,2.1499434222371696E10,2.1551294333403385E10,2.220899868819616E10,2.3294159350307747E10,2.382732253027232E10,2.4027050963455803E10,2.486384462204498E10,2.5130201412006126E10,2.7510565613081287E10,2.7799973332501972E10,2.8340519007087425E10,2.8673738827430603E10,2.9722998513179867E10,3.032773185999738E10,3.0479590649553093E10,3.0746870875467606E10,3.0815012805466087E10,3.131245518366797E10,3.2570775860858017E10,3.3966437187730297E10,3.4132930462805817E10,3.4229343682378845E10,3.614150527406624E10,3.641675223861249E10,3.732641739815289E10,3.774130658297062E10,3.77533369806561E10,3.780054173729275E10,3.888885554782654E10,3.9544273937919586E10,3.971382159508091E10,4.039222389750082E10,4.095535010051042E10,4.1152672199796425E10,4.1888955584127335E10,4.215594173055367E10,4.357902713974229E10,4.3734595579021324E10,4.423971923963656E10
5759586.531581287,1.6712849772069094E9,1.7784833581092823E9,5.77331641946958E9,9.963147274243723E9,1.0422953919717724E10,1.2817241845170786E10,1.6690773343060463E10,1.73692431446427E10,1.821510792400824E10,1.8364254311286037E10,1.9610894927049553E10,2.1589931333685074E10,2.164015800390669E10,2.219864795323573E10,2.3421347095983353E10,2.3824053933868683E10,2.404242095283826E10,2.474415918650201E10,2.511888462332704E10,2.751180520734647E10,2.7778568964217594E10,2.8319309424161644E10,2.868481223312706E10,2.975114593426894E10,3.0316256534237923E10,3.0522074366146004E10,3.0815398427927082E10,3.0944012225723396E10,3.139111387637907E10,3.2651850455403828E10,3.3939682426292904E10,3.3949626466566925E10,3.4067590247398174E10,3.610823476079075E10,3.631127843548741E10,3.7257526977759926E10,3.773904924692167E10,3.7757262539329895E10,3.779026298132235E10,3.888462929142973E10,3.959246429705195E10,3.975690999894796E10,4.045696849010783E10,4.1006430396036224E10,4.116667448738024E10,4.179700460250399E10,4.210768035239283E10,4.3581177317549805E10,4.363852133172128E10,4.420659247791922E10
6021385.919380437,1.8033634588806689E9,1.8622375027972856E9,6.016623182074429E9,9.991417418555077E9,1.0459402812786516E10,1.267587959583538E10,1.656482927919444E10,1.735106672988695E10,1.8255183253456264E10,1.8325564574514835E10,1.9619269545201828E10,2.1630716020362286E10,2.1781680308521027E10,2.218738075638556E10,2.3546210534300575E10,2.3820997101625145E10,2.4059959361204887E10,2.4625421774343987E10,2.5107742407896065E10,2.7512416843040195E10,2.7758423651112354E10,2.8298010116309723E10,2.8694521222071815E10,2.9780105534193394E10,3.030374370203051E10,3.056896797844282E10,3.0874566340326538E10,3.1074732045299843E10,3.1482031119283676E10,3.2716553113872425E10,3.378417582190007E10,3.39049957973788E10,3.3912026010236103E10,3.6076359212847946E10,3.620461012513208E10,3.7184151738832794E10,3.773686450911406E10,3.776155393275904E10,3.777970960761334E10,3.887659667377412E10,3.96434319629905E10,3.979820508310773E10,4.052156214174296E10,4.105784230534206E10,4.114733247636482E10,4.170307295286101E10,4.2087481235190506E10,4.35355170212355E10,4.358465705934489E10,4.417890935039484E10
6283185.307179587,1.938084683967632E9,1.946260357074021E9,6.25711133213272E9,1.0020957869610329E10,1.0492505181963474E10,1.2534250371013979E10,1.6439299536262608E10,1.7332897501066647E10,1.828796823064379E10,1.829635996725552E10,1.962882373720214E10,2.1673683946455177E10,2.1923619296111553E10,2.2175186672121666E10,2.3667201241612045E10,2.3818180317229183E10,2.4081005246172207E10,2.4507776812512436E10,2.509683623191606E10,2.7512418904484936E10,2.773947299094439E10,2.8276672979355618E10,2.8703079871853683E10,2.9809887279993496E10,3.0290385087181534E10,3.061995770853936E10,3.092533511171406E10,3.1206962391968628E10,3.158379840215827E10,3.275105903251608E10,3.3650629307396904E10,3.374179629952682E10,3.3883505848154175E10,3.604583656195014E10,3.6096862397806E10,3.71068865286563E10,3.77347149582834E10,3.7766240577727135E10,3.7768957986678474E10,3.886526549765364E10,3.969652486277337E10,3.983753309167635E10,4.0585068843444305E10,4.109555760019851E10,4.110969713759545E10,4.1607541821355774E10,4.20945441449194E10,4.342745216748928E10,4.3589348079840355E10,4.415580034196759E10
6544984.694978736,2.0305351820985205E9,2.0752053226882262E9,6.494599428562708E9,1.0051765667582432E10,1.0521884111804468E10,1.2392550287366062E10,1.6314289384444601E10,1.7314823247818096E10,1.8251688868699444E10,1.8338670330306E10,1.963962831092452E10,2.1718865790280228E10,2.2065561194021603E10,2.2162060249810013E10,2.378131292003795E10,2.3815632060069847E10,2.4108359843647762E10,2.4391416718383762E10,2.5086224966899353E10,2.7511837854263676E10,2.7721657008166885E10,2.825534911923187E10,2.8710668816002674E10,2.98405059553786E10,3.02762687143607E10,3.067463671544405E10,3.0969353513608067E10,3.1340428355026844E10,3.1694457958492744E10,3.2735978142020348E10,3.3568682826094402E10,3.3578268722716957E10,3.385418851333972E10,3.598814752537639E10,3.6016613487191505E10,3.702627377975664E10,3.773256837606299E10,3.775807528752195E10,3.77713559549789E10,3.885109122013506E10,3.975115228156545E10,3.9874662342917595E10,4.0646504993943184E10,4.101705608953807E10,4.116211054952619E10,4.15108325410045E10,4.212323516300968E10,4.3316135022041084E10,4.359514352658084E10,4.413648541347091E10