% Model:              phononic_alp0(thickness200,r85,isotrope,full_FBZ).mph
% Version:            COMSOL 6.2.0.290
% Date:               Jul 3 2024, 18:46
% Dimension:          1
% Nodes:              14641
% Expressions:        8
% Description:        Global
% X component of wave number (1/m),Frequency,Frequency,Frequency,Frequency,Frequency,Frequency,Frequency,Frequency
-1.5707963267948963E7,3.2518404602541656E9,1.010265360724429E10,1.0506305604144321E10,1.0506308698180624E10,1.0578654222051582E10,1.3631325539065823E10,1.3631332497637665E10,1.898831744033127E10
-1.5707963267948963E7,3.25650090071411E9,1.0098788264999758E10,1.040314523498143E10,1.0511242338763737E10,1.0681078329158218E10,1.3624860045702133E10,1.3630422883232187E10,1.8971801800574577E10
-1.5707963267948963E7,3.270438439346265E9,1.0087722483723091E10,1.0270436100711893E10,1.0525512954631208E10,1.081156781751683E10,1.3605492382653568E10,1.3627701896934168E10,1.893460348845309E10
-1.5707963267948963E7,3.2935235733578286E9,1.0070770645939596E10,1.0135844695913755E10,1.0547799559999151E10,1.0942429998456154E10,1.3573333276464958E10,1.3623168046524216E10,1.8889665936225433E10
-1.5707963267948963E7,3.325546433727806E9,1.0000724353349861E10,1.0049481124466927E10,1.057654385551616E10,1.107226668529031E10,1.35285605024155E10,1.3616823014505234E10,1.8841670711576714E10
-1.5707963267948963E7,3.3662251316570663E9,9.865503844280575E9,1.0025235512067225E10,1.0610350367332079E10,1.120058606347028E10,1.3471417583876331E10,1.3608669151377083E10,1.879226904118666E10
-1.5707963267948963E7,3.4152163356392865E9,9.730448136205482E9,9.999107578371613E9,1.064812750740327E10,1.1327041724294266E10,1.3402208656735556E10,1.3598709468812382E10,1.8742168677908916E10
-1.5707963267948963E7,3.472127190713243E9,9.59577211681169E9,9.971878015430925E9,1.0689072847595074E10,1.1451318735231205E10,1.3321292193136797E10,1.3586947632340305E10,1.8691735178624847E10
-1.5707963267948963E7,3.5365276895161934E9,9.461669894643824E9,9.944098979246426E9,1.0732608602575043E10,1.1573104182527914E10,1.3229073833646524E10,1.357338795322846E10,1.8641188562276764E10
-1.5707963267948963E7,3.607962707054705E9,9.328325042832315E9,9.916158242280312E9,1.0778317504770681E10,1.1692076884432697E10,1.3125998619977837E10,1.3558035379974325E10,1.8590678272566776E10
-1.5707963267948963E7,3.685963081934702E9,9.195915040922817E9,9.888328874582243E9,1.0825893153560717E10,1.1807903099058544E10,1.3012542945123878E10,1.3540895489962458E10,1.854031560058287E10
-1.5707963267948963E7,3.7700553265005317E9,9.064613552964989E9,9.860804389262045E9,1.0875104902372225E10,1.192023468521656E10,1.2889206538652773E10,1.3521974481952814E10,1.8490189226183266E10
-1.5707963267948963E7,3.859769742821956E9,8.934591757828787E9,9.83372277743257E9,1.0925773857935207E10,1.20287086139023E10,1.275650478113821E10,1.3501279170184998E10,1.844037330928214E10
-1.5707963267948963E7,3.95464688724899E9,8.806019198866814E9,9.807182808873981E9,1.0977756614763615E10,1.213294749261624E10,1.2614961596824373E10,1.3478816981003107E10,1.839093201617791E10
-1.5707963267948963E7,4.0542424516777806E9,8.679064351417398E9,9.781255134761585E9,1.1030934187810116E10,1.2232561044949242E10,1.2465103114391806E10,1.3454595953041008E10,1.8341922257180195E10
-1.5707963267948963E7,4.1581307127608953E9,8.553894998550938E9,9.755989931252966E9,1.1085204403751308E10,1.2307452220286444E10,1.2327148600157427E10,1.3428624742151953E10,1.8293395092292297E10
-1.5707963267948963E7,4.265906745725874E9,8.430678457695944E9,9.73142223531968E9,1.1140476598752054E10,1.2142524065270092E10,1.2416302687735296E10,1.340091263242097E10,1.824539746673116E10
-1.5707963267948963E7,4.377187615168533E9,8.309581677928846E9,9.707575727395178E9,1.1196667867364666E10,1.1970822528713753E10,1.2499613830879963E10,1.33714695547744E10,1.8197972370776073E10
-1.5707963267948963E7,4.491612749821901E9,8.190771216005119E9,9.684465456101486E9,1.1253700366523895E10,1.1792837600433022E10,1.2576676599314747E10,1.3340306114880777E10,1.8151159695352573E10
-1.5707963267948963E7,4.608843689850167E9,8.074413092875307E9,9.662099832610294E9,1.1311499346331238E10,1.1609043608008076E10,1.2647096918518904E10,1.330743363225508E10,1.8104996682113483E10
-1.5707963267948963E7,4.728563369871204E9,7.9606725288978615E9,9.640482113608984E9,1.1369991687932356E10,1.1419898198134348E10,1.2710500540806313E10,1.3272864192701326E10,1.8059518227177788E10
-1.5707963267948963E7,4.850475073339922E9,7.84971355404465E9,9.61961152106107E9,1.1225841971974575E10,1.142910479962539E10,1.2766542468709736E10,1.3236610716498165E10,1.8014757162560448E10
-1.5707963267948963E7,4.974301167034831E9,7.74169848852305E9,9.599484100351099E9,1.1027298674478844E10,1.1488765769011719E10,1.2814916992667488E10,1.3198687045028948E10,1.797074453832794E10
-1.5707963267948963E7,5.099781699914582E9,7.636787289158388E9,9.58009338736354E9,1.0824675843818365E10,1.1548900700129768E10,1.285536787888903E10,1.3159108048907629E10,1.7927509771050568E10
-1.5707963267948963E7,5.226672929372701E9,7.535136757469601E9,9.561430934123074E9,1.0618365837271942E10,1.1609434185559616E10,1.2887698140199478E10,1.3117889761057814E10,1.788508087831952E10
-1.5707963267948963E7,5.354745820086571E9,7.436899606598606E9,9.543486728348839E9,1.0408747162304075E10,1.167028887792258E10,1.2911778765126345E10,1.3075049538691113E10,1.7843484631432995E10
-1.5707963267948963E7,5.483784546031266E9,7.342223386104452E9,9.526249532402283E9,1.0196186054814491E10,1.1731385135251657E10,1.2927555787855705E10,1.3030606258705076E10,1.7802746678845295E10
-1.5707963267948963E7,5.613585014479547E9,7.251249266118911E9,9.50970716022371E9,9.98103825967461E9,1.1792640721846052E10,1.2935055164516123E10,1.2984580551729292E10,1.776289170226184E10
-1.5707963267948963E7,5.743953421411944E9,7.164110685466404E9,9.493846705970875E9,9.763650981086132E9,1.1853970551384438E10,1.2934385076769516E10,1.2936995080898409E10,1.772394350640166E10
-1.5707963267948963E7,5.874704840268972E9,7.080931872058546E9,9.478654734592873E9,9.54436498167689E9,1.1915286462904953E10,1.2887874872479933E10,1.2925735494243471E10,1.7685925129219334E10
-1.5707963267948963E7,6.0056618399202E9,7.001826248128126E9,9.323516819455853E9,9.464117442055403E9,1.197649702319646E10,1.2837247706771528E10,1.2909375063001226E10,1.76488589257085E10
-1.5707963267948963E7,6.136653122688783E9,6.926894737582759E9,9.101441220745579E9,9.450220791099295E9,1.2037507351476583E10,1.2785144579267662E10,1.2885645612226215E10,1.7612766641560238E10
-1.5707963267948963E7,6.26751216887141E9,6.856223997814462E9,8.878473595072905E9,9.436950627060024E9,1.2098218964171116E10,1.2731600244053873E10,1.2854954752294842E10,1.757766948639514E10
-1.5707963267948963E7,6.398075870123389E9,6.789884603540884E9,8.654952704748415E9,9.424292777275318E9,1.2158529639297623E10,1.2676653853803888E10,1.2817767151043388E10,1.7543588134388435E10
-1.5707963267948963E7,6.528183129999631E9,6.727929215501548E9,8.431223507540955E9,9.412233136850037E9,1.2218333301494955E10,1.2620349713730753E10,1.277459511223807E10,1.7510542843364017E10
-1.5707963267948963E7,6.657673405630059E9,6.670390771887646E9,8.207640195401062E9,9.400757742980394E9,1.227751993021151E10,1.2562738170508505E10,1.2725989046325935E10,1.7478553426915813E10
-1.5707963267948963E7,6.617280745053675E9,6.786385159652657E9,7.984569455415545E9,9.389852839603539E9,1.2335975495000036E10,1.2503876661663149E10,1.2672528334668627E10,1.7447639291306744E10
-1.5707963267948963E7,6.568587510177261E9,6.914154185940282E9,7.762393980759979E9,9.379504933803383E9,1.239358192330906E10,1.2443830956390375E10,1.2614812966272495E10,1.7417819422888073E10
-1.5707963267948963E7,6.52427487595058E9,7.040811766080018E9,7.541516258781931E9,9.36970084514362E9,1.238267662533457E10,1.245021710759952E10,1.2553456192210255E10,1.7389112438158092E10
-1.5707963267948963E7,6.484280830035178E9,7.166182605813945E9,7.322362659646346E9,9.360427748896528E9,1.2320500784689854E10,1.2489078314411861E10,1.2505754960819597E10,1.7361536521757008E10
-1.5707963267948963E7,6.4485165538523245E9,7.10538784007493E9,7.290082492488664E9,9.351673213973335E9,1.2257404169096563E10,1.2422301620982431E10,1.2560065525403685E10,1.733510943461436E10
-1.5707963267948963E7,6.416865762354936E9,6.891079466207318E9,7.412315600731333E9,9.34342523623528E9,1.2193503598105146E10,1.2353746377249657E10,1.2613015159197468E10,1.7309848595292706E10
-1.5707963267948963E7,6.389184424776449E9,6.679963227194108E9,7.532671372356298E9,9.335672267761631E9,1.2128934912013638E10,1.2284027752131046E10,1.2664466791211292E10,1.7285770644514706E10
-1.5707963267948963E7,6.365300922025887E9,6.472608091429138E9,7.650920871257476E9,9.32840324256547E9,1.2063856463654432E10,1.2213753483438093E10,1.2714280278068518E10,1.7262892031355495E10
-1.5707963267948963E7,6.26963169295262E9,6.345016695364834E9,7.76681252030576E9,9.32160759918149E9,1.1998453261186579E10,1.2143522093384155E10,1.276231286447087E10,1.724122854875877E10
-1.5707963267948963E7,6.071705674895041E9,6.328107439069753E9,7.880067116049114E9,9.31527530049208E9,1.1932941859420143E10,1.2073921446506123E10,1.2808419763760122E10,1.722079540233174E10
-1.5707963267948963E7,5.87956071952363E9,6.314324886564044E9,7.990372030678076E9,9.309396851110336E9,1.1867576087188162E10,1.2005527450107794E10,1.2852454870192566E10,1.720160718362653E10
-1.5707963267948963E7,5.693990873355114E9,6.303399234292363E9,8.097374543583721E9,9.30396331259962E9,1.1802653665041063E10,1.1938902709311895E10,1.2894271612816988E10,1.718367781182439E10
-1.5707963267948963E7,5.515856625285337E9,6.295042239414732E9,8.200674318707391E9,9.29896631677368E9,1.1738523693945475E10,1.187459496744864E10,1.2933723957566246E10,1.7167020487478954E10
-1.5707963267948963E7,5.346086021043237E9,6.288951014939535E9,8.299815183789692E9,9.294398077292183E9,1.1675594856024282E10,1.1813135186987871E10,1.2970667559547497E10,1.7151647646791014E10
-1.5707963267948963E7,5.185672912646393E9,6.284812527762982E9,8.39427660948075E9,9.290251399743063E9,1.1614343926766855E10,1.1755035156846443E10,1.3004961061496758E10,1.713757092066465E10
-1.5707963267948963E7,5.035671275680407E9,6.282308779917418E9,8.48346567433973E9,9.286519690374231E9,1.1555323810298834E10,1.1700784549347778E10,1.3036467526998966E10,1.7124801103700266E10
-1.5707963267948963E7,4.897184428219204E9,6.281122620276927E9,8.566710878187158E9,9.28319696362674E9,1.1499169733105877E10,1.1650847394901987E10,1.3065055988599077E10,1.71133481025323E10
-1.5707963267948963E7,4.771348022208156E9,6.280944093056629E9,8.643259942807533E9,9.280277848593102E9,1.1446601455283773E10,1.1605657994413197E10,1.309060308173781E10,1.710322088642591E10
-1.5707963267948963E7,4.659305935634525E9,6.281477182111422E9,8.712284639780989E9,9.277757594516117E9,1.1398418457821852E10,1.1565616347008265E10,1.3112994726147575E10,1.7094427458620575E10
-1.5707963267948963E7,4.562178753180899E9,6.282446759464959E9,8.772896457614717E9,9.275632075424295E9,1.1355484292243155E10,1.1531083230725464E10,1.313212780772164E10,1.7086974826686605E10
-1.5707963267948963E7,4.481025427550614E9,6.283605497762534E9,8.824177044231152E9,9.273897793987823E9,1.13186961552279E10,1.1502375131223618E10,1.314791180682641E10,1.7080868971959053E10
-1.5707963267948963E7,4.416799921218116E9,6.28474046607993E9,8.865226059080257E9,9.272551884665676E9,1.1288937052836094E10,1.1479759261763111E10,1.3160270314494743E10,1.7076114820402807E10
-1.5707963267948963E7,4.370305968446103E9,6.285679104134685E9,8.895225599096762E9,9.271592116202E9,1.126701138916939E10,1.146344894929044E10,1.3169142376752726E10,1.7072716220136747E10
-1.5707963267948963E7,4.342154262897173E9,6.286294268267181E9,8.913514714607662E9,9.271016893520752E9,1.1253570462611702E10,1.1453599669665663E10,1.3174483610101381E10,1.7070675931624489E10
-1.5707963267948963E7,4.332726981095992E9,6.286508068265976E9,8.919661266990236E9,9.270825259052498E9,1.1249040617260813E10,1.1450305995290026E10,1.3176267038122458E10,1.7069995638652283E10
-1.5707963267948963E7,4.342154262897179E9,6.286294268267154E9,8.913514714607609E9,9.271016893520773E9,1.1253570462611702E10,1.1453599669665678E10,1.3174483610101322E10,1.7070675930930338E10
-1.5707963267948963E7,4.370305968446315E9,6.285679104134652E9,8.8952255990967E9,9.271592116202E9,1.126701138916927E10,1.146344894929056E10,1.3169142376752724E10,1.7072716224564026E10
-1.5707963267948963E7,4.416799921218405E9,6.284740466079895E9,8.865226059080183E9,9.272551884665648E9,1.1288937052836098E10,1.1479759261763205E10,1.3160270314494745E10,1.7076114829069952E10
-1.5707963267948963E7,4.481025427550692E9,6.283605497762547E9,8.824177044231182E9,9.273897793987894E9,1.13186961552279E10,1.1502375131223623E10,1.314791180682644E10,1.7080868981821064E10
-1.5707963267948963E7,4.562178753180983E9,6.282446759464917E9,8.772896457614805E9,9.27563207542432E9,1.1355484292243227E10,1.1531083230725485E10,1.3132127807721684E10,1.7086974837309105E10
-1.5707963267948963E7,4.659305935634547E9,6.281477182111422E9,8.712284639781116E9,9.277757594516157E9,1.1398418457821993E10,1.1565616347008276E10,1.311299472614763E10,1.7094427472740505E10
-1.5707963267948963E7,4.771348022208083E9,6.280944093056608E9,8.643259942807516E9,9.28027784859314E9,1.1446601455283789E10,1.1605657994413185E10,1.3090603081737892E10,1.7103220906755302E10
-1.5707963267948963E7,4.897184428219145E9,6.28112262027688E9,8.5667108781872E9,9.283196963626707E9,1.1499169733105915E10,1.1650847394901958E10,1.3065055988599092E10,1.7113348129073431E10
-1.5707963267948963E7,5.035671275680318E9,6.282308779917438E9,8.483465674339756E9,9.286519690374228E9,1.1555323810298912E10,1.170078454934773E10,1.3036467526998953E10,1.712480113175118E10
-1.5707963267948963E7,5.18567291264642E9,6.284812527763015E9,8.39427660948068E9,9.290251399743029E9,1.1614343926766684E10,1.1755035156846449E10,1.3004961061496706E10,1.7137570942226242E10
-1.5707963267948963E7,5.346086021043117E9,6.288951014939606E9,8.299815183789562E9,9.294398077292255E9,1.1675594856024221E10,1.1813135186987835E10,1.2970667559547445E10,1.7151647666735987E10
-1.5707963267948963E7,5.515856625285311E9,6.2950422394146595E9,8.200674318707289E9,9.298966316773636E9,1.173852369394547E10,1.1874594967448673E10,1.2933723957566195E10,1.7167020535908577E10
-1.5707963267948963E7,5.693990873355149E9,6.3033992342923E9,8.097374543583744E9,9.303963312599648E9,1.1802653665041206E10,1.1938902709311918E10,1.289427161281695E10,1.718367791575171E10
-1.5707963267948963E7,5.879560719523635E9,6.314324886564032E9,7.990372030678081E9,9.309396851110338E9,1.1867576087188171E10,1.2005527450107803E10,1.2852454870192577E10,1.7201607352021076E10
-1.5707963267948963E7,6.071705674895051E9,6.328107439069747E9,7.880067116049046E9,9.315275300492025E9,1.1932941859420033E10,1.207392144650615E10,1.2808419763760132E10,1.7220795356571213E10
-1.5707963267948963E7,6.269631692952652E9,6.34501669536482E9,7.766812520305892E9,9.321607599181541E9,1.1998453261186678E10,1.2143522093384151E10,1.276231286447091E10,1.724122849343618E10
-1.5707963267948963E7,6.365300922025871E9,6.4726080914293165E9,7.650920871257525E9,9.32840324256545E9,1.2063856463654457E10,1.2213753483438164E10,1.2714280278068562E10,1.7262891970627247E10
-1.5707963267948963E7,6.389184424776444E9,6.679963227194031E9,7.532671372356292E9,9.335672267761644E9,1.2128934912013746E10,1.2284027752131046E10,1.2664466791211226E10,1.728577057641575E10
-1.5707963267948963E7,6.41686576235495E9,6.891079466207292E9,7.412315600731314E9,9.343425236235247E9,1.2193503598105131E10,1.2353746377249678E10,1.2613015159197533E10,1.7309848515727066E10
-1.5707963267948963E7,6.448516553852253E9,7.105387840075014E9,7.290082492488649E9,9.351673213973255E9,1.2257404169096481E10,1.2422301620982487E10,1.2560065525403694E10,1.7335109450208805E10
-1.5707963267948963E7,6.484280830035173E9,7.166182605813898E9,7.322362659646333E9,9.360427748896528E9,1.232050078468988E10,1.2489078314411861E10,1.2505754960819242E10,1.7361536484367393E10
-1.5707963267948963E7,6.52427487595061E9,7.04081176607996E9,7.541516258781989E9,9.369700845143633E9,1.2382676625334631E10,1.245021710759977E10,1.2553456192210278E10,1.7389112401494904E10
-1.5707963267948963E7,6.568587510177204E9,6.914154185940127E9,7.762393980759968E9,9.37950493380329E9,1.2393581923309021E10,1.2443830956390278E10,1.2614812966272497E10,1.7417819432841953E10
-1.5707963267948963E7,6.617280745053692E9,6.786385159652556E9,7.984569455415548E9,9.38985283960354E9,1.2335975494999962E10,1.2503876661663073E10,1.2672528334668587E10,1.744763929136574E10
-1.5707963267948963E7,6.657673405630153E9,6.670390771887642E9,8.207640195401098E9,9.400757742980392E9,1.2277519930211544E10,1.2562738170508566E10,1.2725989046325945E10,1.747855342795508E10
-1.5707963267948963E7,6.528183129999582E9,6.7279292155015745E9,8.431223507540926E9,9.412233136850016E9,1.2218333301494928E10,1.2620349713730742E10,1.277459511223806E10,1.75105428408744E10
-1.5707963267948963E7,6.3980758701232395E9,6.789884603540913E9,8.654952704748375E9,9.4242927772753E9,1.2158529639297556E10,1.2676653853803839E10,1.2817767151043379E10,1.7543588128372765E10
-1.5707963267948963E7,6.267512168871547E9,6.856223997814465E9,8.878473595072985E9,9.436950627060093E9,1.2098218964171247E10,1.273160024405389E10,1.2854954752294876E10,1.757766947725903E10
-1.5707963267948963E7,6.136653122688893E9,6.926894737582751E9,9.101441220745474E9,9.450220791099318E9,1.2037507351476603E10,1.27851445792677E10,1.288564561222615E10,1.7612766644875664E10
-1.5707963267948963E7,6.005661839920439E9,7.00182624812806E9,9.323516819455772E9,9.46411744205548E9,1.1976497023196512E10,1.2837247706771612E10,1.290937506300117E10,1.764885893049697E10
-1.5707963267948963E7,5.874704840268973E9,7.080931872058528E9,9.478654734592861E9,9.54436498167688E9,1.1915286462904993E10,1.2887874872479967E10,1.2925735494243511E10,1.768592512895243E10
-1.5707963267948963E7,5.743953421411912E9,7.164110685466408E9,9.493846705970852E9,9.763650981086094E9,1.1853970551384455E10,1.2934385076769499E10,1.2936995080898369E10,1.7723943505808445E10
-1.5707963267948963E7,5.613585014479582E9,7.251249266118913E9,9.509707160223696E9,9.981038259674664E9,1.1792640721846123E10,1.2935055164516127E10,1.2984580551729322E10,1.7762891715111656E10
-1.5707963267948963E7,5.483784546031092E9,7.342223386104496E9,9.52624953240227E9,1.0196186054814495E10,1.1731385135251625E10,1.2927555787855669E10,1.3030606258705006E10,1.7802746697329403E10
-1.5707963267948963E7,5.354745820086495E9,7.436899606598618E9,9.543486728348848E9,1.0408747162304073E10,1.167028887792256E10,1.2911778765126352E10,1.3075049538691093E10,1.78434846556797E10
-1.5707963267948963E7,5.226672929372781E9,7.53513675746959E9,9.561430934123135E9,1.0618365837271912E10,1.1609434185559607E10,1.2887698140199455E10,1.3117889761057827E10,1.788508089398101E10
-1.5707963267948963E7,5.099781699914589E9,7.636787289158366E9,9.580093387363527E9,1.0824675843818403E10,1.1548900700129738E10,1.285536787888905E10,1.3159108048907661E10,1.7927509815124527E10
-1.5707963267948963E7,4.974301167034969E9,7.741698488523056E9,9.59948410035117E9,1.1027298674478878E10,1.1488765769011745E10,1.2814916992667484E10,1.3198687045029001E10,1.7970744588164326E10
-1.5707963267948963E7,4.85047507333973E9,7.849713554044642E9,9.619611521061008E9,1.1225841971974564E10,1.1429104799625282E10,1.2766542468709736E10,1.3236610716498095E10,1.8014757168207584E10
-1.5707963267948963E7,4.728563369871082E9,7.960672528897849E9,9.640482113608978E9,1.1369991687932343E10,1.1419898198134314E10,1.2710500540806318E10,1.32728641927013E10,1.805951829520144E10
-1.5707963267948963E7,4.6088436898503275E9,8.074413092875268E9,9.662099832610365E9,1.1311499346331278E10,1.160904360800807E10,1.2647096918518887E10,1.3307433632255E10,1.810499678946934E10
-1.5707963267948963E7,4.491612749821867E9,8.190771216005122E9,9.684465456101454E9,1.125370036652392E10,1.1792837600433016E10,1.2576676599314726E10,1.3340306114880745E10,1.8151159850498276E10
-1.5707963267948963E7,4.3771876151684065E9,8.309581677928865E9,9.707575727395174E9,1.119666786736466E10,1.1970822528713764E10,1.2499613830879957E10,1.3371469554774357E10,1.8197972347271553E10
-1.5707963267948963E7,4.265906745726034E9,8.430678457695921E9,9.731422235319715E9,1.1140476598752077E10,1.2142524065270075E10,1.241630268773531E10,1.3400912632421041E10,1.82453974595806E10
-1.5707963267948963E7,4.1581307127609057E9,8.553894998550955E9,9.755989931252932E9,1.1085204403751274E10,1.230745222028649E10,1.2327148600157448E10,1.3428624742151949E10,1.829339509085201E10
-1.5707963267948963E7,4.0542424516780047E9,8.679064351417337E9,9.781255134761616E9,1.1030934187810102E10,1.2232561044949175E10,1.2465103114391794E10,1.3454595953041101E10,1.8341922193028378E10
-1.5707963267948963E7,3.954646887248854E9,8.806019198866812E9,9.807182808874008E9,1.0977756614763659E10,1.213294749261624E10,1.2614961596824322E10,1.3478816981003052E10,1.8390932163507816E10
-1.5707963267948963E7,3.8597697428217044E9,8.934591757828766E9,9.833722777432507E9,1.0925773857935204E10,1.2028708613902294E10,1.2756504781138172E10,1.3501279170184935E10,1.844037330913391E10
-1.5707963267948963E7,3.7700553265006576E9,9.064613552964964E9,9.860804389262098E9,1.0875104902372278E10,1.1920234685216562E10,1.2889206538652779E10,1.3521974481952835E10,1.8490189225515495E10
-1.5707963267948963E7,3.6859630819347596E9,9.195915040922829E9,9.88832887458223E9,1.0825893153560669E10,1.1807903099058554E10,1.3012542945123877E10,1.3540895489962431E10,1.854031559998143E10
-1.5707963267948963E7,3.6079627070545774E9,9.328325042832308E9,9.916158242280327E9,1.0778317504770718E10,1.169207688443271E10,1.3125998619977839E10,1.3558035379974384E10,1.859067827372359E10
-1.5707963267948963E7,3.5365276895158916E9,9.46166989464381E9,9.944098979246386E9,1.0732608602575018E10,1.1573104182527918E10,1.322907383364661E10,1.3573387953228428E10,1.8641188567400547E10
-1.5707963267948963E7,3.472127190713267E9,9.595772116811674E9,9.971878015430931E9,1.068907284759508E10,1.1451318735231192E10,1.332129219313681E10,1.3586947632340322E10,1.8691735188887585E10
-1.5707963267948963E7,3.415216335639303E9,9.73044813620552E9,9.999107578371572E9,1.0648127507403263E10,1.132704172429428E10,1.340220865673557E10,1.3598709468812426E10,1.8742168699993595E10
-1.5707963267948963E7,3.3662251316570725E9,9.86550384428053E9,1.0025235512067282E10,1.0610350367332066E10,1.1200586063470259E10,1.3471417583876316E10,1.360866915137709E10,1.879226907458593E10
-1.5707963267948963E7,3.3255464337279615E9,1.000072435334985E10,1.0049481124466986E10,1.0576543855516153E10,1.1072266685290298E10,1.3528560502415466E10,1.361682301450524E10,1.884167075129663E10
-1.5707963267948963E7,3.2935235733578544E9,1.0070770645939579E10,1.0135844695913748E10,1.0547799559999146E10,1.094242999845617E10,1.3573333276464993E10,1.3623168046524218E10,1.8889665952918007E10
-1.5707963267948963E7,3.270438439346382E9,1.008772248372311E10,1.0270436100711903E10,1.0525512954631214E10,1.0811567817516817E10,1.3605492382653605E10,1.362770189693418E10,1.893460341687064E10
-1.5707963267948963E7,3.256500900714421E9,1.0098788264999767E10,1.0403145234981411E10,1.051124233876372E10,1.0681078329158205E10,1.3624860045702074E10,1.3630422883232252E10,1.8971801790888855E10
-1.5707963267948963E7,3.2518404602547393E9,1.0102653607244518E10,1.0506305604144327E10,1.0506308698180634E10,1.0578654222051607E10,1.3631325539065819E10,1.3631332497637676E10,1.8988317440331375E10
-1.5446163880149815E7,3.256500895658646E9,1.009878825209259E10,1.0403146355441437E10,1.0511240541347586E10,1.068107901827096E10,1.3624861985875437E10,1.3630420942844603E10,1.89718016199155E10
-1.5446163880149815E7,3.2611533552622566E9,1.00950580388793E10,1.034734698317414E10,1.051811221007437E10,1.0734067468755388E10,1.3623864847750898E10,1.362404799975022E10,1.895802602681211E10
-1.5446163880149815E7,3.2750671261616616E9,1.008435036547727E10,1.0236770351308077E10,1.0533268499419804E10,1.084117616292498E10,1.3604593284775429E10,1.36212459080194E10,1.8924732627970596E10
-1.5446163880149815E7,3.298113257000142E9,1.0067854135961758E10,1.0111737552459557E10,1.0555485665758999E10,1.0962086055947657E10,1.3572446750450218E10,1.3616724271724691E10,1.8882427273623283E10
-1.5446163880149815E7,3.330082753690319E9,9.981654023822865E9,1.0047168183854073E10,1.058388183545076E10,1.108661998022842E10,1.3527690890407799E10,1.3610396619171217E10,1.8836102728727337E10
-1.5446163880149815E7,3.370694865745103E9,9.849609994444664E9,1.0023401427907303E10,1.0617277287361038E10,1.1211681599950071E10,1.3470569103303804E10,1.3602265049611773E10,1.878781321721947E10
-1.5446163880149815E7,3.41960759017707E9,9.71668596076312E9,9.997718776683746E9,1.0654655216020857E10,1.1335943077815092E10,1.3401385202816332E10,1.35923324477905E10,1.8738495580215015E10
-1.5446163880149815E7,3.4764295127379994E9,9.583534619792664E9,9.970882260551273E9,1.0695237947228289E10,1.1458645609935925E10,1.3320497283550886E10,1.3580602355722176E10,1.868863986373044E10
-1.5446163880149815E7,3.5407321036477914E9,9.450571697770283E9,9.943445538693537E9,1.0738452897367231E10,1.1579248000730013E10,1.3228310590922342E10,1.3567078948780136E10,1.8638536524617306E10
-1.5446163880149815E7,3.612061685566847E9,9.318106077095804E9,9.915802304614458E9,1.0783880528832048E10,1.1697300162071777E10,1.3125269777997526E10,1.3551767024189716E10,1.8588376944964424E10
-1.5446163880149815E7,3.6899504601630816E9,9.186391395234821E9,9.888232368244993E9,1.0831209717996843E10,1.1812390247342522E10,1.3011850875025358E10,1.3534671992497154E10,1.853829859614195E10
-1.5446163880149815E7,3.773926177131338E9,9.055650230775028E9,9.860935529552505E9,1.0880204689457693E10,1.1924120132416641E10,1.288855329067277E10,1.35157998707334E10,1.848840720612916E10
-1.5446163880149815E7,3.863520222202191E9,8.926086593927103E9,9.834055224624252E9,1.0930681787502016E10,1.203209338731476E10,1.2755892139237423E10,1.3495157277529718E10,1.843878846435981E10
-1.5446163880149815E7,3.958274065163329E9,8.797892872306652E9,9.807694789502882E9,1.0982493442418854E10,1.2135909513297802E10,1.261439114328126E10,1.34727514309065E10,1.838951460865978E10
-1.5446163880149815E7,4.057744133617086E9,8.671253920628654E9,9.781928653801853E9,1.1035517115068945E10,1.2235161801335861E10,1.246457630211868E10,1.3448590149689869E10,1.834064839842693E10
-1.5446163880149815E7,4.161505261026052E9,8.546349568174358E9,9.756810108841925E9,1.108964761888211E10,1.2306970451386261E10,1.2329437638305656E10,1.3422681859695957E10,1.829224521293128E10
-1.5446163880149815E7,4.269152903057781E9,8.423356187048351E9,9.732376764624142E9,1.1144791725594528E10,1.214208877526727E10,1.2418320733790194E10,1.3395035605984161E10,1.824435535142802E10
-1.5446163880149815E7,4.380304332149328E9,8.302447662563281E9,9.708654437700623E9,1.1200864322454176E10,1.1970435276924288E10,1.250139502883479E10,1.3365661072666742E10,1.819702441672855E10
-1.5446163880149815E7,4.494599015079194E9,8.183795954146368E9,9.685659962848005E9,1.1257785632425396E10,1.179250016808501E10,1.2578250161115686E10,1.33345686119464E10,1.8150294399828003E10
-1.5446163880149815E7,4.611698360030362E9,8.067571353703071E9,9.663403257575876E9,1.1315479169956097E10,1.1608758107037455E10,1.2648488375532495E10,1.3301769284265984E10,1.8104204254564037E10
-1.5446163880149815E7,4.73128499431003E9,7.9539425031639E9,9.641888861067732E9,1.137387021060282E10,1.1419667195157358E10,1.2711732721102924E10,1.3267274911689825E10,1.805879029400057E10
-1.5446163880149815E7,4.853061706057923E9,7.843076207030575E9,9.621117098423815E9,1.1225668633963348E10,1.143288462228481E10,1.2767636285480444E10,1.3231098146897223E10,1.8014086540665195E10
-1.5446163880149815E7,4.976750155818815E9,7.735137060607076E9,9.601084974151207E9,1.1027186945421808E10,1.1492447951688387E10,1.2815892105716082E10,1.3193252560474371E10,1.7970125045252384E10
-1.5446163880149815E7,5.102089438294937E9,7.630286905791651E9,9.581786867381193E9,1.0824630665594614E10,1.155248468933971E10,1.2856243278367142E10,1.3153752749536804E10,1.7926936083426987E10
-1.5446163880149815E7,5.228834551475473E9,7.528684121417805E9,9.56321507997639E9,1.0618393433849869E10,1.1612917656072983E10,1.2888492697068827E10,1.3112614471127756E10,1.7884548401976295E10
-1.5446163880149815E7,5.356754809360363E9,7.430482752842387E9,9.545360274065512E9,1.0408855415443857E10,1.1673667464856691E10,1.2912511795564707E10,1.3069854804319862E10,1.784298939127513E10
-1.5446163880149815E7,5.485632214552264E9,7.335831485023465E9,9.528211825406237E9,1.0196385013873043E10,1.1734652016370405E10,1.2928247690034801E10,1.3025492345533339E10,1.780228524084278E10
-1.5446163880149815E7,5.61525978599379E9,7.244872464276359E9,9.511758111856516E9,9.98134085176545E9,1.17957859837612E10,1.2935728209343287E10,1.2979547442282259E10,1.776246108757853E10
-1.5446163880149815E7,5.745439811241727E9,7.157739975958314E9,9.495986751187449E9,9.764074028003666E9,1.1856980228571209E10,1.2932042471421759E10,1.2935064477063482E10,1.7723541128961437E10
-1.5446163880149815E7,5.875981954499504E9,7.074558988323723E9,9.480884798846775E9,9.544930700824484E9,1.191814105798067E10,1.2883002169012074E10,1.292645095589973E10,1.7685548738353344E10
-1.5446163880149815E7,6.006701085762512E9,6.995443576547428E9,9.324255116635904E9,9.466438913650003E9,1.1979169164591154E10,1.2832454020206038E10,1.2910163172766575E10,1.7648506556836563E10
-1.5446163880149815E7,6.137414568217748E9,6.920495245279315E9,9.102393336485104E9,9.452635497451859E9,1.2039957938659073E10,1.278042871915395E10,1.2886553721307764E10,1.7612436573409557E10
-1.5446163880149815E7,6.2679384654656725E9,6.849801172905675E9,8.87969819112429E9,9.43946081341737E9,1.2100390491281157E10,1.2726960710880587E10,1.2856047672791403E10,1.757736019935634E10
-1.5446163880149815E7,6.398081479294074E9,6.783432405760103E9,8.656536649134764E9,9.426901086437428E9,1.216033384006542E10,1.2672088829504482E10,1.2819139528475805E10,1.7543298286943737E10